# vtk DataFile Version 2.6
output file
ASCII
DATASET UNSTRUCTURED_GRID

POINTS 351 float
0.0 0.0 0 
0.0 0.125 0 
0.0 0.25 0 
0.0 0.375 0 
0.0 0.5 0 
0.0 0.625 0 
0.0 0.75 0 
0.0 0.875 0 
0.0 1.0 0 
0.08056172204611751 0.3118774480168081 0 
0.0863545210660774 0.495294177603272 0 
0.09226903684617882 0.5704561509268028 0 
0.0935514459046169 0.9244500611674427 0 
0.09375 1.0 0 
0.09466781449648176 0.8143548014747843 0 
0.09750550578667033 0.08948306571120894 0 
0.1036592177783544 0.4156993145625542 0 
0.1068421321836167 0.2053314786782614 0 
0.1121644369492177 0.6900149621593685 0 
0.125 2.775557561562891E-17 0 
0.1613643111953133 0.5019386321655096 0 
0.1728740204886992 0.139630381546232 0 
0.1788661347521334 0.7770638513311097 0 
0.1852110170650712 0.8743277672300486 0 
0.1856427278355514 0.06781906372534617 0 
0.1875 1.0 0 
0.1921627093138983 0.3136612771278199 0 
0.1940211169662829 0.5984996030772752 0 
0.2029218156836624 0.42378255927652 0 
0.2049183183379371 0.2074520200775271 0 
0.2277288264497777 0.7016716892867105 0 
0.25 5.551115123125783E-17 0 
0.2754207931635408 0.124422978270963 0 
0.2765156074777557 0.810201445290019 0 
0.2777409080668002 0.5049976228581952 0 
0.2787518435676092 0.2452566378247691 0 
0.2798593693234898 0.9267206071082168 0 
0.2809300246054989 0.314894293045278 0 
0.28125 1.0 0 
0.2823435158851935 0.3862156876599705 0 
0.2965334162737547 0.6279522408469749 0 
0.3147822763650473 0.7197574420286635 0 
0.3498094982770918 0.2058759081237704 0 
0.3598677268871747 0.502089428472867 0 
0.3647214580094806 0.4325667713537466 0 
0.3695762267428238 0.31397198350651 0 
0.3729743190176227 0.5707177265087156 0 
0.3731099055572438 0.8955190483624275 0 
0.375 8.326672684688674E-17 0 
0.375 1.0 0 
0.3773822176902246 0.7863212431015651 0 
0.3852915526213173 0.1294502656188605 0 
0.3976512465015188 0.678253675017365 0 
0.4346185388254265 0.5006532275681399 0 
0.4377980741499201 0.2140363159192406 0 
0.4533772167891792 0.7598989718655776 0 
0.4604625840176218 0.8537443487295843 0 
0.4627633721521907 0.4061330477401292 0 
0.46875 1.0 0 
0.472502105936863 0.5946683836044527 0 
0.483677161490972 0.1101446080242139 0 
0.4926900041831206 0.3064160286546283 0 
0.5 1.110223024625157E-16 0 
0.5008330476046249 0.6925971588166041 0 
0.5343390084315387 0.7881180468702437 0 
0.5384977840840453 0.2154729437982505 0 
0.5539572316645783 0.3830492882466996 0 
0.5558723210264533 0.8949554456044324 0 
0.5614992166779724 0.4984067425670613 0 
0.5625 1.0 0 
0.5671989812091829 0.06726137516430482 0 
0.5719695095152084 0.628136868830327 0 
0.5788572237053126 0.1412398811991341 0 
0.5811442325330529 0.7191298099891678 0 
0.5927241373046898 0.3009464385287599 0 
0.625 1.387778780781446E-16 0 
0.6448074709263621 0.2049010790378568 0 
0.646963606186897 0.6838565191871977 0 
0.6537898947676534 0.093846658679221 0 
0.6542661535524144 0.8008642097951861 0 
0.6551446643564862 0.9292022262907935 0 
0.65625 1.0 0 
0.663832143410815 0.3961206433534893 0 
0.6638685120812655 0.4924204294926297 0 
0.6730396898300284 0.2923842175156647 0 
0.6735333855698145 0.584192867712547 0 
0.728487562732308 0.2361071686974475 0 
0.7429357447789025 0.6960889922461894 0 
0.7442301095015953 0.1471314152402854 0 
0.746642932295146 0.314474245167945 0 
0.75 1.665334536937735E-16 0 
0.75 1.0 0 
0.7527121095785595 0.8984982682701373 0 
0.7600933775261272 0.4913775887738244 0 
0.7675679771534618 0.8018574137077448 0 
0.7678823315492637 0.3930435777102584 0 
0.771489666249991 0.5973147844238376 0 
0.8217001054963833 0.2377995678858281 0 
0.8260956848383743 0.3336620533279788 0 
0.84375 1.0 0 
0.8448681322374911 0.6529323982444127 0 
0.845113493071792 0.7535877670354115 0 
0.8467479325584738 0.8618922885067538 0 
0.8468152923343195 0.5583125083450808 0 
0.8487249087577982 0.4909580421101752 0 
0.8549658970423443 0.4178949988881546 0 
0.8582078441860977 0.114441068716133 0 
0.875 1.942890293094024E-16 0 
0.9164863467711675 0.2079604335120167 0 
0.9204286981084201 0.6041068887917196 0 
0.9225755131075831 0.8076296650871962 0 
0.9278232790630463 0.3190365820685693 0 
0.9307539826641671 0.4104496837604934 0 
0.9358972105557245 0.4992427622270672 0 
0.9375 1.0 0 
0.9414550867963667 0.06869372069243224 0 
0.9462743825104568 0.7045802072455667 0 
0.9511699847062097 0.9123803261126783 0 
0.9543041807838799 0.1425395284363638 0 
1.0 2.220446049250313E-16 0 
1.005331831430492 0.4087519159297383 0 
1.02052170120775 0.602353074075715 0 
1.024709122956875 0.2153290111903302 0 
1.025074406197116 0.8081703708141472 0 
1.026208614174352 0.1001458369896125 0 
1.03125 1.0 0 
1.040478903762053 0.3250391668250474 0 
1.047199363539605 0.7036687763456189 0 
1.052539611694858 0.9156136552638403 0 
1.053763265078711 0.493380830615693 0 
1.107065433375727 0.2091727894175478 0 
1.111111111111111 0.04046984328469905 0 
1.112678892792702 0.1371578317125556 0 
1.117219366599769 0.2797287091539979 0 
1.119392949761643 0.5585377254801998 0 
1.12005619431476 0.6504533690748412 0 
1.125 1.0 0 
1.126826454314437 0.4011207613824557 0 
1.127620393654557 0.7509878774971459 0 
1.128340424488482 0.486731799025922 0 
1.130531418857044 0.8644954986857666 0 
1.180798703169985 0.2030248360403123 0 
1.193712870803387 0.5991317475225494 0 
1.206039450078319 0.505017012837489 0 
1.210806007692248 0.6846231620046592 0 
1.212887113180244 0.307238968273547 0 
1.21875 1.0 0 
1.222014780134031 0.9190603433499989 0 
1.222222222222222 0.06997618330929334 0 
1.231864036183736 0.7952911525017351 0 
1.245794308834129 0.4061609633933869 0 
1.293587152814284 0.2135765989864941 0 
1.293930744465225 0.7080283647295151 0 
1.300837645383493 0.6002922758927626 0 
1.309026988371429 0.3362802252251366 0 
1.311655271518004 0.4777529279162053 0 
1.3125 1.0 0 
1.313205401121772 0.8672491527255938 0 
1.319938803869259 0.4067032945567716 0 
1.324043134171812 0.7762620532922894 0 
1.333333333333333 0.08927197372091444 0 
1.384003235366789 0.2899693024802748 0 
1.38785973846016 0.8119045425260242 0 
1.393243274006675 0.6054992438222816 0 
1.393546635485159 0.5252587524069456 0 
1.399516821454227 0.6988517195354339 0 
1.400858800723917 0.903192578406814 0 
1.401531371977054 0.4046798178988405 0 
1.40625 1.0 0 
1.409765748000234 0.1957265272077652 0 
1.444444444444444 0.09881237299577417 0 
1.473612452143603 0.4864302573947852 0 
1.480009328183546 0.58733110817886 0 
1.486054428215387 0.8132085482117947 0 
1.498691690770762 0.9302608473622792 0 
1.498959668938235 0.2986609087717453 0 
1.5 1.0 0 
1.502690409924905 0.1804597515436225 0 
1.505642137317682 0.4125220956385582 0 
1.526363828324423 0.69548054198936 0 
1.555555555555556 0.09881237299577417 0 
1.575597301068874 0.3816592794403551 0 
1.580695046170961 0.6117547789829315 0 
1.583180052192954 0.7750978156771426 0 
1.584483764528507 0.4930861708698963 0 
1.59375 1.0 0 
1.60418180885603 0.2071256693353248 0 
1.605641467285411 0.3094370238368113 0 
1.605859057682582 0.8862896159395472 0 
1.62841106867326 0.6940651686465105 0 
1.666666666666667 0.08927197372091467 0 
1.673291586597639 0.7930845868576515 0 
1.673941848977895 0.383985258216907 0 
1.680518021131524 0.2782206075202629 0 
1.683873618025161 0.5932381103806607 0 
1.6875 1.0 0 
1.700219639115266 0.4873295013452412 0 
1.719605372861241 0.1891914705077573 0 
1.720420819187518 0.8989640742935975 0 
1.724719545000361 0.7047206333079802 0 
1.777777777777778 0.06997618330929334 0 
1.778551407573861 0.8072804588499612 0 
1.779136185468732 0.5351422815179441 0 
1.78125 1.0 0 
1.78136600022672 0.4325567190483139 0 
1.790246024297818 0.3006949662631102 0 
1.790775449157526 0.6325250961431766 0 
1.805261395645337 0.9131934460533012 0 
1.806221386162318 0.7177010128951321 0 
1.806466106453123 0.1859178215889616 0 
1.854900075510957 0.4889881505247725 0 
1.857788107220641 0.7696232330188237 0 
1.867225787031233 0.5761654443898722 0 
1.871104062011521 0.8596917387631344 0 
1.871462650746398 0.2307888132705463 0 
1.875 1.0 0 
1.8835098557898 0.1420048974622086 0 
1.886534475204811 0.6811068393121369 0 
1.888888888888889 0.04046984328469905 0 
1.891940427989606 0.3993609127691887 0 
1.900463944717242 0.3009838695808997 0 
1.941215703944802 0.7813262905347288 0 
1.946833691475199 0.6097737138653097 0 
1.951180603647111 0.5103777780822787 0 
1.964384122056332 0.8940374002576164 0 
1.96875 1.0 0 
1.97523477495674 0.224984010010355 0 
1.977557241275598 0.3374562146613657 0 
1.978993527866483 0.1048726267050888 0 
1.990303068694179 0.4234886303225958 0 
1.992924443475936 0.6894582108379078 0 
2.0 2.220446049250313E-16 0 
2.034867035648274 0.5926251519722447 0 
2.048768669229933 0.2959253120212767 0 
2.0625 1.0 0 
2.063269675354606 0.06822105945978355 0 
2.063358736788412 0.9284621992565929 0 
2.063458964463481 0.3764219683438355 0 
2.06575649155314 0.1523032000634778 0 
2.067915037634306 0.7975747956786872 0 
2.072807902618856 0.4831725119632581 0 
2.078627268518145 0.2335431138176545 0 
2.082894227869631 0.6756836675939689 0 
2.125 1.942890293094024E-16 0 
2.141639336743667 0.408017578403949 0 
2.149691626345421 0.09212120955771262 0 
2.150615428105577 0.1905406026004052 0 
2.150922006410674 0.3044838256365207 0 
2.15625 1.0 0 
2.159108270684771 0.588708528293273 0 
2.160718548507364 0.8975912425925352 0 
2.162484870710141 0.7138894055228419 0 
2.169644035960637 0.4803759578298328 0 
2.176947374230863 0.8041060234466592 0 
2.220453037979951 0.2292176010702926 0 
2.236256086991655 0.5114488417431675 0 
2.23831573282223 0.6644532089962789 0 
2.239009850429423 0.1399168240096398 0 
2.248220429036476 0.4025865029114077 0 
2.249507843478511 0.7525370727084422 0 
2.25 1.665334536937735E-16 0 
2.25 1.0 0 
2.250603634700229 0.8574842236503355 0 
2.253951433980878 0.296248972193986 0 
2.276935142991158 0.5865724811243354 0 
2.307774480454688 0.218308948534541 0 
2.322650389756282 0.4963804172872595 0 
2.32515819574005 0.7962628205777526 0 
2.339587645504367 0.3129831849860439 0 
2.339793779732512 0.8950948476545214 0 
2.34375 1.0 0 
2.345475539529446 0.6814824204374016 0 
2.352691603761521 0.1107383250180372 0 
2.361695200548535 0.5739801661969589 0 
2.370003010201851 0.4079959698475406 0 
2.375 1.387778780781446E-16 0 
2.423735911054815 0.3322084736241286 0 
2.427595578199137 0.606331593604542 0 
2.432691236984024 0.2207036427644606 0 
2.433476250589047 0.9250676643444172 0 
2.434752432559341 0.1315819821484729 0 
2.435481675248938 0.7937917721519324 0 
2.435872252243751 0.06665529647087742 0 
2.4375 1.0 0 
2.440656167894793 0.501864917123219 0 
2.449903875810302 0.6798563697562829 0 
2.453737784831271 0.4014052049838863 0 
2.5 1.110223024625157E-16 0 
2.51350603382194 0.8777820360246141 0 
2.515791106299075 0.4298096425232822 0 
2.516931344150913 0.1087588837536199 0 
2.519399862130964 0.7101398368271111 0 
2.520624236704854 0.3318601645017992 0 
2.529883819960394 0.6027180405456125 0 
2.53125 1.0 0 
2.543665436628489 0.499686404066339 0 
2.555192610990711 0.7894152400534588 0 
2.56415807187557 0.2156445000922597 0 
2.608993958389402 0.4229716187007399 0 
2.609608538683016 0.8840685565425324 0 
2.613480459606401 0.6891646226151787 0 
2.616565756501354 0.1279174849663309 0 
2.620807073989325 0.6079693163730573 0 
2.622868962945003 0.5334287208509858 0 
2.625 8.326672684688674E-17 0 
2.625 1.0 0 
2.640240725496803 0.7811218891158089 0 
2.645628104406881 0.3028529304832149 0 
2.655476100200376 0.2018958045745043 0 
2.691621420750835 0.919531425057175 0 
2.702125854577988 0.3877370458950427 0 
2.70929161303723 0.8285447235873303 0 
2.710951529150349 0.7248544743856206 0 
2.711459248481771 0.4791862810416237 0 
2.712934980124057 0.6055769093698783 0 
2.71875 1.0 0 
2.726878262029547 0.1208385165872626 0 
2.729488808805988 0.2380494649695366 0 
2.740691298335035 0.3222125413423723 0 
2.75 5.551115123125783E-17 0 
2.786830892691504 0.6810364707824681 0 
2.790625888283282 0.894077691431747 0 
2.798079668520831 0.1959297144158196 0 
2.798261490395257 0.77155415382861 0 
2.807753584902663 0.5248874613003373 0 
2.811706189545596 0.4016547770481229 0 
2.8125 1.0 0 
2.814437210195452 0.2804917759423165 0 
2.814825562080009 0.06601183223046524 0 
2.820938203442788 0.6125877528499333 0 
2.828098815292866 0.1347523900869224 0 
2.875 2.775557561562891E-17 0 
2.887211298211676 0.6892140798580887 0 
2.888197472068414 0.4839255373060146 0 
2.892917802987129 0.1996999664484737 0 
2.896948920924265 0.8172227444027816 0 
2.901235961990893 0.9279637906526402 0 
2.901856284120244 0.5726003711717041 0 
2.902937330656169 0.0876994481873339 0 
2.90625 1.0 0 
2.906722668212369 0.3204013762784136 0 
2.921576467440597 0.4142857895943398 0 
3.0 0.0 0 
3.0 0.125 0 
3.0 0.25 0 
3.0 0.375 0 
3.0 0.5 0 
3.0 0.625 0 
3.0 0.75 0 
3.0 0.875 0 
3.0 1.0 0 


CELLS 627 2508
3 191 188 183 
3 206 194 202 
3 184 194 182 
3 6 5 18 
3 85 93 96 
3 96 93 103 
3 334 343 344 
3 344 340 334 
3 342 343 338 
3 338 343 334 
3 347 337 346 
3 349 335 348 
3 348 335 332 
3 332 347 348 
3 337 347 332 
3 316 304 319 
3 301 304 316 
3 334 340 327 
3 129 113 120 
3 164 167 171 
3 141 148 151 
3 184 192 196 
3 202 194 196 
3 196 194 184 
3 181 192 184 
3 199 206 208 
3 194 206 199 
3 208 201 199 
3 199 201 191 
3 212 206 202 
3 27 34 40 
3 40 30 27 
3 27 30 18 
3 60 48 62 
3 51 48 60 
3 19 15 0 
3 0 15 1 
3 4 3 16 
3 10 4 16 
3 131 124 119 
3 107 106 90 
3 90 78 75 
3 86 84 76 
3 90 106 88 
3 88 78 90 
3 86 76 88 
3 88 76 78 
3 65 76 74 
3 74 76 84 
3 173 179 183 
3 183 188 173 
3 188 174 173 
3 168 174 176 
3 147 136 140 
3 83 85 68 
3 93 85 83 
3 93 95 105 
3 98 105 95 
3 110 101 116 
3 102 101 110 
3 96 103 100 
3 100 116 101 
3 140 136 128 
3 346 337 333 
3 333 341 346 
3 333 337 324 
3 346 341 345 
3 345 341 340 
3 340 344 345 
3 342 338 331 
3 324 337 329 
3 337 332 329 
3 329 314 324 
3 290 297 278 
3 301 297 290 
3 287 304 290 
3 290 304 301 
3 273 264 266 
3 298 295 289 
3 278 297 292 
3 292 289 286 
3 297 307 292 
3 292 307 298 
3 298 289 292 
3 284 289 295 
3 286 289 284 
3 277 273 284 
3 284 273 266 
3 293 300 291 
3 291 285 293 
3 293 285 277 
3 293 284 295 
3 277 284 293 
3 320 329 332 
3 314 329 320 
3 324 314 313 
3 330 338 334 
3 340 341 325 
3 325 327 340 
3 341 333 325 
3 325 333 324 
3 324 313 325 
3 249 264 256 
3 190 200 197 
3 197 186 190 
3 160 151 148 
3 188 195 185 
3 176 174 185 
3 185 174 188 
3 171 167 178 
3 178 184 171 
3 178 181 184 
3 189 182 194 
3 194 199 189 
3 183 179 189 
3 189 179 182 
3 189 191 183 
3 189 199 191 
3 202 196 204 
3 204 196 192 
3 192 205 204 
3 222 212 223 
3 182 179 172 
3 172 164 171 
3 171 184 172 
3 184 182 172 
3 57 45 61 
3 65 74 61 
3 44 34 39 
3 44 45 57 
3 39 45 44 
3 38 36 49 
3 25 36 38 
3 7 12 8 
3 8 12 13 
3 13 12 25 
3 6 18 14 
3 14 7 6 
3 12 7 14 
3 23 36 25 
3 25 12 23 
3 12 14 23 
3 33 36 23 
3 40 52 41 
3 41 30 40 
3 33 30 41 
3 11 27 18 
3 11 18 5 
3 11 5 4 
3 11 4 10 
3 65 60 72 
3 72 76 65 
3 78 76 72 
3 31 48 32 
3 32 48 51 
3 15 21 17 
3 2 1 17 
3 17 1 15 
3 24 19 31 
3 31 32 24 
3 24 32 21 
3 15 19 24 
3 24 21 15 
3 10 16 20 
3 34 27 20 
3 20 11 10 
3 27 11 20 
3 35 45 37 
3 37 45 39 
3 9 3 2 
3 9 16 3 
3 2 17 9 
3 132 131 148 
3 132 148 141 
3 124 131 132 
3 122 133 126 
3 124 132 122 
3 115 107 119 
3 106 107 115 
3 119 124 115 
3 174 168 166 
3 162 173 166 
3 166 173 174 
3 166 168 156 
3 136 147 146 
3 146 147 156 
3 149 147 140 
3 82 74 84 
3 82 95 93 
3 93 83 82 
3 82 83 68 
3 120 113 112 
3 113 105 112 
3 113 103 104 
3 104 105 113 
3 104 103 93 
3 93 105 104 
3 97 106 108 
3 86 88 97 
3 97 88 106 
3 89 84 86 
3 86 97 89 
3 89 97 98 
3 89 98 95 
3 89 82 84 
3 95 82 89 
3 109 103 113 
3 109 100 103 
3 116 100 109 
3 129 139 134 
3 134 139 143 
3 138 149 140 
3 144 149 138 
3 117 102 110 
3 114 99 117 
3 117 99 102 
3 92 99 91 
3 102 99 92 
3 125 128 136 
3 114 117 125 
3 125 117 128 
3 336 349 350 
3 335 349 336 
3 317 307 308 
3 308 307 297 
3 308 297 301 
3 301 316 308 
3 308 316 317 
3 317 327 318 
3 318 307 317 
3 327 325 318 
3 274 284 266 
3 286 284 274 
3 276 292 286 
3 286 274 276 
3 276 274 268 
3 278 292 276 
3 276 268 278 
3 303 293 295 
3 303 313 314 
3 303 295 298 
3 298 313 303 
3 319 331 328 
3 328 316 319 
3 328 330 316 
3 328 331 338 
3 338 330 328 
3 317 316 322 
3 316 330 322 
3 322 327 317 
3 334 327 322 
3 322 330 334 
3 281 285 291 
3 249 242 232 
3 222 223 232 
3 222 232 230 
3 230 232 242 
3 269 262 267 
3 267 281 269 
3 269 281 279 
3 261 262 269 
3 250 262 261 
3 253 262 250 
3 251 242 249 
3 249 256 251 
3 267 262 259 
3 259 262 253 
3 253 251 259 
3 259 251 256 
3 285 281 271 
3 271 281 267 
3 267 259 271 
3 271 259 256 
3 277 285 271 
3 271 273 277 
3 264 273 271 
3 271 256 264 
3 197 205 193 
3 193 205 192 
3 193 186 197 
3 197 200 209 
3 209 205 197 
3 170 177 169 
3 161 151 169 
3 169 160 170 
3 151 160 169 
3 181 178 175 
3 161 169 175 
3 175 169 177 
3 175 177 186 
3 167 161 175 
3 175 178 167 
3 180 177 170 
3 186 177 180 
3 180 190 186 
3 154 151 161 
3 154 161 167 
3 167 164 155 
3 143 150 155 
3 155 153 143 
3 164 153 155 
3 126 133 137 
3 143 139 137 
3 137 150 143 
3 120 126 137 
3 137 129 120 
3 137 139 129 
3 203 207 215 
3 198 195 188 
3 188 191 198 
3 198 203 195 
3 207 203 198 
3 191 201 198 
3 201 207 198 
3 220 226 227 
3 210 223 212 
3 210 212 202 
3 202 204 210 
3 163 153 164 
3 164 172 163 
3 47 36 33 
3 49 36 47 
3 49 47 58 
3 58 47 56 
3 67 69 58 
3 58 56 67 
3 85 77 71 
3 68 85 71 
3 67 56 64 
3 57 61 66 
3 66 61 74 
3 74 82 66 
3 68 57 66 
3 66 82 68 
3 54 61 45 
3 65 61 54 
3 54 60 65 
3 51 60 54 
3 40 34 46 
3 46 52 40 
3 18 30 22 
3 22 14 18 
3 22 23 14 
3 22 30 33 
3 33 23 22 
3 55 52 63 
3 63 64 55 
3 55 64 56 
3 62 75 70 
3 70 60 62 
3 70 72 60 
3 70 75 78 
3 78 72 70 
3 28 20 16 
3 39 34 28 
3 34 20 28 
3 26 9 17 
3 35 37 26 
3 26 37 39 
3 39 28 26 
3 16 9 26 
3 26 28 16 
3 133 122 130 
3 130 122 132 
3 141 133 130 
3 130 132 141 
3 118 122 108 
3 124 122 118 
3 118 115 124 
3 108 106 118 
3 106 115 118 
3 156 147 157 
3 157 166 156 
3 162 166 157 
3 147 149 157 
3 152 149 144 
3 144 153 152 
3 111 97 108 
3 98 97 111 
3 105 98 111 
3 111 112 105 
3 108 122 111 
3 111 122 126 
3 111 126 120 
3 120 112 111 
3 116 109 121 
3 129 134 121 
3 113 129 121 
3 121 109 113 
3 142 134 143 
3 143 153 142 
3 142 153 144 
3 123 117 110 
3 128 117 123 
3 110 116 123 
3 140 128 123 
3 123 138 140 
3 80 92 91 
3 80 69 67 
3 101 102 94 
3 102 92 94 
3 339 336 350 
3 326 336 339 
3 310 325 313 
3 310 318 325 
3 310 313 298 
3 298 307 310 
3 307 318 310 
3 275 272 260 
3 302 314 300 
3 302 303 314 
3 300 293 302 
3 293 303 302 
3 312 306 300 
3 300 314 312 
3 314 320 312 
3 294 283 279 
3 296 281 291 
3 291 300 296 
3 300 306 296 
3 227 237 229 
3 222 230 217 
3 217 212 222 
3 208 206 217 
3 206 212 217 
3 261 269 270 
3 279 283 270 
3 270 269 279 
3 248 250 261 
3 248 234 236 
3 236 250 248 
3 228 218 231 
3 249 232 240 
3 240 232 223 
3 223 229 240 
3 237 244 240 
3 240 229 237 
3 187 175 186 
3 181 175 187 
3 186 193 187 
3 192 181 187 
3 187 193 192 
3 141 151 145 
3 151 154 145 
3 145 133 141 
3 145 154 150 
3 145 137 133 
3 150 137 145 
3 150 154 158 
3 158 155 150 
3 158 154 167 
3 167 155 158 
3 215 207 213 
3 213 224 215 
3 213 207 201 
3 215 224 225 
3 236 234 225 
3 225 224 236 
3 236 224 239 
3 253 250 239 
3 239 250 236 
3 239 230 242 
3 239 251 253 
3 242 251 239 
3 205 209 214 
3 214 220 205 
3 226 220 214 
3 219 210 204 
3 219 204 205 
3 205 220 219 
3 219 220 227 
3 227 229 219 
3 223 210 219 
3 219 229 223 
3 73 64 63 
3 63 71 73 
3 73 71 77 
3 51 54 42 
3 35 32 42 
3 42 32 51 
3 42 45 35 
3 42 54 45 
3 34 44 43 
3 43 46 34 
3 68 71 59 
3 59 71 63 
3 63 52 59 
3 52 46 59 
3 50 47 33 
3 33 41 50 
3 56 47 50 
3 50 55 56 
3 50 41 52 
3 52 55 50 
3 35 26 29 
3 29 32 35 
3 21 32 29 
3 29 17 21 
3 29 26 17 
3 159 157 149 
3 149 152 159 
3 162 157 159 
3 153 163 165 
3 165 152 153 
3 165 159 152 
3 162 159 165 
3 165 173 162 
3 179 173 165 
3 165 172 179 
3 165 163 172 
3 116 121 127 
3 127 123 116 
3 138 123 127 
3 81 80 91 
3 69 80 81 
3 67 64 79 
3 79 80 67 
3 64 73 79 
3 92 80 79 
3 79 94 92 
3 79 73 77 
3 87 100 101 
3 101 94 87 
3 96 100 87 
3 87 85 96 
3 87 77 85 
3 87 79 77 
3 94 79 87 
3 282 275 287 
3 287 290 282 
3 272 275 282 
3 305 309 315 
3 335 336 321 
3 321 336 326 
3 326 315 321 
3 321 315 309 
3 279 281 288 
3 281 296 288 
3 288 294 279 
3 258 274 266 
3 268 274 258 
3 258 263 268 
3 249 240 252 
3 252 240 244 
3 244 258 252 
3 208 217 211 
3 211 201 208 
3 211 213 201 
3 230 239 221 
3 221 239 224 
3 221 217 230 
3 221 211 217 
3 224 213 221 
3 213 211 221 
3 218 228 216 
3 216 214 209 
3 216 228 226 
3 226 214 216 
3 200 218 216 
3 216 209 200 
3 46 43 53 
3 53 59 46 
3 53 44 57 
3 53 43 44 
3 53 57 68 
3 68 59 53 
3 135 121 134 
3 135 127 121 
3 134 142 135 
3 135 142 144 
3 144 138 135 
3 138 127 135 
3 280 290 278 
3 280 282 290 
3 278 272 280 
3 272 282 280 
3 335 321 323 
3 323 312 320 
3 323 332 335 
3 323 320 332 
3 305 294 299 
3 294 288 299 
3 299 309 305 
3 299 296 306 
3 299 288 296 
3 260 245 243 
3 226 228 238 
3 260 272 257 
3 257 245 260 
3 255 264 249 
3 249 252 255 
3 266 264 255 
3 255 258 266 
3 255 252 258 
3 306 312 311 
3 312 323 311 
3 311 323 321 
3 311 321 309 
3 311 299 306 
3 309 299 311 
3 231 243 235 
3 235 228 231 
3 235 238 228 
3 235 243 245 
3 245 238 235 
3 233 237 227 
3 227 226 233 
3 265 257 272 
3 278 268 265 
3 265 272 278 
3 268 263 265 
3 246 238 245 
3 245 257 246 
3 254 265 263 
3 257 265 254 
3 254 246 257 
3 246 254 247 
3 247 244 237 
3 237 233 247 
3 247 254 263 
3 247 258 244 
3 263 258 247 
3 241 247 233 
3 246 247 241 
3 238 246 241 
3 226 238 241 
3 241 233 226 

CELL_TYPES 627
5
5
5
5
5
5
5
5
5
5
5
5
5
5
5
5
5
5
5
5
5
5
5
5
5
5
5
5
5
5
5
5
5
5
5
5
5
5
5
5
5
5
5
5
5
5
5
5
5
5
5
5
5
5
5
5
5
5
5
5
5
5
5
5
5
5
5
5
5
5
5
5
5
5
5
5
5
5
5
5
5
5
5
5
5
5
5
5
5
5
5
5
5
5
5
5
5
5
5
5
5
5
5
5
5
5
5
5
5
5
5
5
5
5
5
5
5
5
5
5
5
5
5
5
5
5
5
5
5
5
5
5
5
5
5
5
5
5
5
5
5
5
5
5
5
5
5
5
5
5
5
5
5
5
5
5
5
5
5
5
5
5
5
5
5
5
5
5
5
5
5
5
5
5
5
5
5
5
5
5
5
5
5
5
5
5
5
5
5
5
5
5
5
5
5
5
5
5
5
5
5
5
5
5
5
5
5
5
5
5
5
5
5
5
5
5
5
5
5
5
5
5
5
5
5
5
5
5
5
5
5
5
5
5
5
5
5
5
5
5
5
5
5
5
5
5
5
5
5
5
5
5
5
5
5
5
5
5
5
5
5
5
5
5
5
5
5
5
5
5
5
5
5
5
5
5
5
5
5
5
5
5
5
5
5
5
5
5
5
5
5
5
5
5
5
5
5
5
5
5
5
5
5
5
5
5
5
5
5
5
5
5
5
5
5
5
5
5
5
5
5
5
5
5
5
5
5
5
5
5
5
5
5
5
5
5
5
5
5
5
5
5
5
5
5
5
5
5
5
5
5
5
5
5
5
5
5
5
5
5
5
5
5
5
5
5
5
5
5
5
5
5
5
5
5
5
5
5
5
5
5
5
5
5
5
5
5
5
5
5
5
5
5
5
5
5
5
5
5
5
5
5
5
5
5
5
5
5
5
5
5
5
5
5
5
5
5
5
5
5
5
5
5
5
5
5
5
5
5
5
5
5
5
5
5
5
5
5
5
5
5
5
5
5
5
5
5
5
5
5
5
5
5
5
5
5
5
5
5
5
5
5
5
5
5
5
5
5
5
5
5
5
5
5
5
5
5
5
5
5
5
5
5
5
5
5
5
5
5
5
5
5
5
5
5
5
5
5
5
5
5
5
5
5
5
5
5
5
5
5
5
5
5
5
5
5
5
5
5
5
5
5
5
5
5
5
5
5
5
5
5
5
5
5
5
5
5
5
5
5
5
5
5
5
5
5
5
5
5
5
5
5
5
5
5
5
5
5
5
5
5
5
5
5
5
5
5
5
5
5
5
5
5
5
5
5
5
5
5
5
5
5
5
5
5
5
5
5
5
5
5
5
5
5
5
5
5
5
5
5
5
5
5
5
5
5
5
5
5
5
5
5
5
5
5
5
5
5
5
5
5
5
5
5
5
5
5

POINT_DATA 351
SCALARS mach float 1
LOOKUP_TABLE default
0.6749249190935659
0.6749249293503435
0.6749248920914933
0.6749248791233703
0.6749248665327879
0.6749248648838204
0.6749248627877864
0.6749248621434928
0.6749248620867367
0.6749248106728493
0.6749248562339354
0.6749248542564686
0.6749248620830882
0.6749248621774893
0.6749248616742181
0.6749243280327811
0.6749248051391233
0.674924536804278
0.6749248557230941
0.674923603045357
0.6749248256571154
0.6749240502742739
0.6749248548503829
0.6749248567128759
0.6749233197761733
0.674924857909297
0.6749249723778812
0.6749248180730353
0.6749247343034825
0.6749249426994975
0.674924861232648
0.6749464861626584
0.6749420843917953
0.6749249302173743
0.6749262805966191
0.6749328640308486
0.6749248784724918
0.6749338521954974
0.674924867843075
0.6749307652675446
0.6749260772411129
0.6749256138988203
0.6748843737159765
0.674927623793049
0.6748966572523595
0.6747677076614123
0.6749267448928989
0.6749248817648318
0.674269317664446
0.6749249352539975
0.6749247403449975
0.6745711666742582
0.6749151092792515
0.6746695960920833
0.6734121614410068
0.6749020654047205
0.6749156072629421
0.6738413245636546
0.6749208207237045
0.6745661355472364
0.6682898919374302
0.6708220942756875
0.6619055519630087
0.6747097685848037
0.6747334219432312
0.6609403727939905
0.6662183152124815
0.6747900044123801
0.6688980134063005
0.6748309693381126
0.6462048002588054
0.6727542320177694
0.6453865452908201
0.6740404147189912
0.65175975113407
0.6203499022898086
0.6198846879838478
0.6707260158428534
0.6058701557397658
0.6727592858068581
0.6743252821190716
0.6745385083394323
0.6386214698378151
0.6535555004818312
0.6186408819195977
0.6604619423901458
0.5861662353908144
0.6609006827831267
0.5675225465598236
0.5932101319263106
0.5566863233404475
0.6735038471293288
0.6718545634848597
0.6256946592271369
0.6672174876708299
0.6016186474854356
0.642449372909626
0.5611935708063942
0.5777387330175643
0.6681628566888943
0.6375327563885348
0.6535318008847586
0.6640890655254285
0.6185404653549772
0.6042017959786377
0.5906295553604962
0.5302066358373047
0.49844796162449595
0.5479181440601637
0.6175616534497801
0.6505825044876821
0.5740778473820168
0.5867427366974096
0.6008845860475668
0.6619723735652189
0.4933657428108965
0.6327617766629162
0.6574511626192023
0.5292441230560132
0.47276209988722756
0.5961374789752036
0.6164572951651451
0.5713696431236288
0.6404569460040889
0.5258576358918702
0.6541680764768082
0.5951282081554303
0.6270962219822684
0.6478365394226608
0.6117779256601351
0.6085396058196912
0.5636504540977736
0.6060746843175117
0.617539928102902
0.6252913857007116
0.6273402698992492
0.6435625272914449
0.6257749401291383
0.6330914744318572
0.62565932007452
0.6396051138559934
0.6540268465809049
0.638092135459275
0.64483545887692
0.6392480819453034
0.662137371977784
0.6397209833526578
0.6394660500729606
0.6799720910711371
0.6397403950758417
0.6659864985617635
0.7232565149978548
0.6494830882028324
0.6601605083843975
0.7004677723341065
0.6784695341600518
0.6409666754178834
0.6430245782348206
0.6913595417576947
0.6490713388471716
0.7775005136084738
0.7467797861437091
0.6531584007378803
0.6796720888486296
0.6930292139442482
0.6673525150529013
0.6485758565368691
0.7210590141998747
0.6478410726557717
0.7978156983487527
0.8481466001433127
0.7228282352098926
0.7014036337946646
0.6659016656260972
0.6572054864468686
0.7931353972750517
0.6550159343056439
0.8535698697813968
0.7521560686127315
0.6892272536363748
0.8998449849487531
0.7836198831550554
0.7159367904856047
0.6846080759953532
0.7483804736140003
0.664973046602711
0.8802369722789711
0.8234921437797201
0.6743584523612676
0.7059160883950214
0.9474121337711211
0.6945642955778233
0.8081379825613236
0.860991062689458
0.7385338408119531
0.6784668022259397
0.77366670886011
0.9265286287638523
0.6883419006942625
0.7176587345271334
0.9016517186497813
0.7059063520608604
0.7685335883990735
0.6904235620155342
0.801963658880152
0.8480861366886834
0.7418343590043649
0.6973327667935878
0.7242080542354172
0.8848544175566107
0.7801687810389444
0.7193926739346785
0.7585503122148678
0.7086822836773731
0.7910713026298367
0.7024765259996159
0.753973551547018
0.7366225578645561
0.6681906781334987
0.7793797684301633
0.7665691266122908
0.7219299019077972
0.745687390540869
0.751148087523903
0.7120483909437224
0.7097482018039174
0.6805572374153576
0.7123192585674641
0.604791980693575
0.7259737541106193
0.7313954486103947
0.530075520588302
0.7282380958965929
0.6696567132929887
0.7116150386470146
0.5629537899639481
0.7130637699149659
0.6867998216870173
0.6186019686752552
0.7184644535631716
0.7061854392469031
0.645875658547862
0.7203613180915533
0.5592020458896242
0.6773455889184603
0.6046746564260365
0.6313846636832318
0.6567061982701785
0.7117980221744694
0.701467967017426
0.712157787402646
0.7102004491358825
0.684468491880083
0.7111824531672722
0.6422084363262278
0.6808965514858406
0.6974395892168351
0.6321284664439583
0.6667591837991758
0.7023146242572809
0.6155721302157742
0.7069784788330484
0.7059701090861958
0.6523904436083858
0.6855146259415364
0.6463677066896104
0.6729633213073899
0.6974620141300037
0.6559153047840255
0.6996485923815404
0.6992290388789342
0.687990221449486
0.6408904938179983
0.6778297336669369
0.6637365687745623
0.6340276513019534
0.6587069559937668
0.676833136512488
0.6532478794595562
0.6931108511899692
0.6508273102821498
0.6882549830881993
0.6441908396597691
0.6938036229632761
0.6690410987279215
0.6803283196528089
0.6627549576368837
0.6435210703651822
0.6862055860399296
0.6638554570778855
0.6517564720784722
0.6785569948984124
0.6593971257584552
0.672176963193066
0.6871233740914078
0.6666105541872961
0.6804453450342155
0.6564822033076732
0.6626894750190926
0.6804897544144675
0.6732509828238251
0.6555393667777988
0.6694394130317892
0.6665494411908947
0.6518839942880041
0.680420988055873
0.6759704662957902
0.6588302410645641
0.6570058297601581
0.6770351883398027
0.6601251490987521
0.674334147304854
0.6709307097320084
0.6623809195683942
0.6664798261969205
0.6757911694653638
0.6542428893813986
0.6562815155103306
0.657589943829312
0.6509364402239127
0.6657421807002197
0.6711618265353714
0.652535332745276
0.6679125348537113
0.6590833791481097
0.6553343634292015
0.669703865550947
0.6526865096709533
0.6493687440021854
0.6612258057842353
0.6499858250758402
0.6457922737869138
0.6577394260306415
0.6516419120499102
0.6468102500060452
0.6600870574218155
0.6614856737313929
0.6530189955148341
0.6453149242553061
0.6619610414067267
0.6473963197549154
0.6477828352552908
0.6438114793313015
0.6443545117626539
0.6448529914548142
0.6452366999586177
0.6471244738566398
0.6494053258456702
0.6520251839013893
0.6536994443525769
0.6551012617950658
